<VTKFile type="PolyData" version="1.0" byte_order="LittleEndian" header_type="UInt64">
  <PolyData>
    <Piece NumberOfPoints="2601" NumberOfVerts="0" NumberOfLines="0" NumberOfStrips="0" NumberOfPolys="2500">
      <PointData>
        <DataArray type="Float32" Name="zvalue" NumberOfComponents="1" format="ascii" RangeMin="0.000919581909142" RangeMax="17.2841048743">
          17.2841048743 14.6807087018 12.9810070721 11.8304681384 11.004704017 10.3552434708
          9.77438816376 9.19417627441 8.588429758 7.98017116318 7.41009513687 6.9232199942
          6.54278854736 6.2798590213 6.13587998154 6.10507919098 6.18305489532 6.35672761597
          6.6088489328 6.90503613007 7.21212894165 7.51253565796 7.79332843353 8.05476761841
          8.29926152435 8.5234017334 8.7077430838 8.8443518161 8.91384570648 8.90660196198
          8.81833083649 8.65548686188 8.42943770447 8.14101809448 7.79423933487 7.39443378525
          6.95504980804 6.49053360016 6.00641131699 5.52885119232 5.12582736664 4.87426286392
          4.80460668076 4.88711328934 5.0752671933 5.34901583847 5.730441465 6.28210808258
          7.07460538055 8.15200678375 9.55291280823 14.7611429129 12.8625636981 11.5640723419
          10.6209262262 9.90088051544 9.28957471588 8.73031869293 8.1778107132 7.6224831601
          7.08981561539 6.60659027588 6.20294661453 5.90343371033 5.70947828644 5.62224689285
          5.62881527725 5.72167717072 5.87978561966 6.08802511749 6.33179142075 6.59866064224
          6.87266334457 7.13645947006 7.38426809708 7.62183604874 7.85238246643 8.05856957886
          8.22321096222 8.33807945068 8.39023579285 8.3757113089 8.29244606628 8.1386960022
          7.92023951294 7.63840340958 7.29190877945 6.88539515076 6.43451819717 5.95619631561
          5.47627456161 5.05345945526 4.77199387909 4.68194473984 4.75059100922 4.91429682434
          5.13875352219 5.44096292786 5.87570954483 6.50484355499 7.38651367569 8.56780039825
          13.0398638959 11.4470854587 10.3051467929 9.47128909973 8.825815625 8.28831333389
          7.79237964874 7.30390897079 6.81917496948 6.35579419891 5.94810321335 5.62396246658
          5.40060717072 5.27678143555 5.24403543091 5.28621534088 5.38698738449 5.53245039459
          5.70077112793 5.89492199249 6.11078426804 6.3469529631 6.57929920181 6.79879982697
          7.01436764435 7.23062268219 7.42986346588 7.60110509186 7.73442699585 7.82320881332
          7.85912469147 7.83712191559 7.75408640533 7.60510689545 7.39324906754 7.11306834335
          6.764281129 6.35346383209 5.90214705139 5.4405066098 5.02509648346 4.72884788971
          4.61697872528 4.66607065857 4.80664209229 4.99088210907 5.22812368973 5.55924575806
          6.04043552856 6.73240654755 7.7056203183 11.589109285 10.1034106696 9.09026487823
          8.40923394043 7.91895136215 7.51874169342 7.12761375336 6.71214000763 6.28322569901
          5.8649766394 5.4998358255 5.22086786285 5.04523475266 4.96836947342 4.9699988942
          5.03166741867 5.13986107697 5.27217534164 5.41165402267 5.56316894379 5.7310023259
          5.91386492096 6.10543312973 6.2923191835 6.47864377228 6.67268090408 6.85180950562
          7.00960973267 7.14250849396 7.24473124405 7.31066706879 7.33555337631 7.31241864273
          7.2299447818 7.08357317169 6.87166836823 6.59128803741 6.24324935455 5.84192022308
          5.41573637283 5.01624022247 4.71588850204 4.58074886688 4.60994172318 4.73123212433
          4.88164452301 5.05841153366 5.29907005661 5.65098944931 6.17613481445 6.94929257935
          10.3044373224 8.95172471893 8.11826131943 7.64250808838 7.35301337982 7.10938865021
          6.82185953369 6.46199208023 6.05666175415 5.65246366852 5.30336138947 5.03847049713
          4.87359950638 4.79895076126 4.79587887955 4.85200554062 4.95109560135 5.06946581543
          5.18378361816 5.29360518875 5.40968510529 5.5405687532 5.68162249054 5.8303179155
          5.98589814545 6.15676025909 6.32064129364 6.46173971222 6.58381872406 6.68594452484
          6.7671987674 6.82317441284 6.8440840834 6.81849420853 6.73523707779 6.59059415436
          6.37963533112 6.1022827948 5.76626695831 5.39086625336 5.01837083984 4.71586278214
          4.55668583389 4.56119652969 4.67271307739 4.80578215454 4.93199940689 5.08753779526
          5.32751074509 5.70888192886 6.30518954956 9.44790963135 8.22941706558 7.54727351288
          7.24607641342 7.12151553711 7.00205024628 6.77921818512 6.44042313583 6.03440355453
          5.62886141876 5.2798130835 5.01434546799 4.83654859207 4.74094539215 4.71518370865
          4.74428374191 4.81013199005 4.89569873016 4.97754619461 5.04189579208 5.10160348877
          5.17691440521 5.27026525345 5.37771599335 5.50145610764 5.64969807343 5.80525806137
          5.94209331009 6.05769167511 6.15678318039 6.24336481598 6.31744967285 6.37038375732
          6.39110348495 6.36580205521 6.28583705078 6.14555105347 5.94173903595 5.67640471771
          5.36207215561 5.02749860199 4.72699756866 4.53753075836 4.5066563942 4.60746612808
          4.74456912933 4.84983887451 4.93745779678 5.07779414871 5.33327472977 5.7754732225
          9.06785617126 7.89335413101 7.26346037354 7.04893840958 7.03247511734 6.9937923584
          6.81152011719 6.4860950827 6.08549656967 5.68443976974 5.33669069092 5.06034507843
          4.86222163849 4.73780073212 4.67633392365 4.66463513245 4.6810605452 4.71177782516
          4.73787634705 4.75194410553 4.76166675323 4.78688180206 4.83792446014 4.9123203299
          5.01065504715 5.13998790146 5.29002363983 5.43250012695 5.55423139313 5.65691294891
          5.74719801468 5.82969285828 5.90522628067 5.96395145523 5.9890097142 5.9689761528
          5.89367602356 5.76163882141 5.56759301743 5.31887020142 5.03351560944 4.74668040939
          4.5285883432 4.44772603836 4.52074958267 4.66863303513 4.78728518555 4.84721073792
          4.90741818634 5.05587937225 5.36191626083 8.92795372467 7.72325021118 7.07647818863
          6.8969463562 6.93937530609 6.9551879982 6.81085762238 6.51010071014 6.12819816895
          5.7383319368 5.39318393707 5.10647189774 4.88935296875 4.73546205048 4.63408631714
          4.57161423309 4.528151297 4.48811019241 4.44419676651 4.39516320587 4.35382469635
          4.33672290573 4.35585697601 4.40706670441 4.49098097443 4.60860627457 4.75539202972
          4.91009186157 5.04987059662 5.16849782928 5.27132144424 5.36884794235 5.46373909821
          5.54967488312 5.61496487534 5.64654982956 5.63212962479 5.56510118347 5.44105952606
          5.25846204468 5.028472883 4.76874207016 4.53335545349 4.3990867775 4.41792178986
          4.5560842868 4.70690408051 4.78696262985 4.80623974136 4.86474710434 5.05669709702
          8.81804471649 7.56004006836 6.88672260345 6.72745706177 6.81149081894 6.86750530975
          6.75564609009 6.48574080811 6.12427737427 5.74448657852 5.39778095901 5.10407196869
          4.86897204529 4.68893703583 4.55395274155 4.44451826218 4.33983073273 4.22680074966
          4.10445347565 3.98714999283 3.88902088715 3.8300628891 3.81323033951 3.84287009224
          3.91750250053 4.03256197014 4.181929972 4.35058376343 4.5192746138 4.66806876022
          4.79831015671 4.9214297525 5.03964318207 5.15138878326 5.25088543198 5.32581880463
          5.36466634018 5.35704621185 5.29546060089 5.17751005585 5.00364018539 4.78510122787
          4.55388167862 4.37539207886 4.32411835297 4.42114823074 4.58882102707 4.71445318527
          4.74589647369 4.74705112427 4.83995875992 8.6254919104 7.34469712921 6.67279569946
          6.54363816986 6.66538856079 6.75068566284 6.66821016266 6.42042919571 6.07084575424
          5.69113486542 5.33567704987 5.02778695557 4.77718850143 4.57867643356 4.41655893768
          4.26644629044 4.10798501785 3.92663401535 3.73327121185 3.55069317566 3.40086543266
          3.29809717346 3.24531319016 3.24800163254 3.30719926643 3.41650495842 3.56993991379
          3.75418084763 3.95181682968 4.13795635452 4.30748995743 4.46737498764 4.62056209366
          4.76740711914 4.90200386566 5.01602174179 5.0977772525 5.14000830811 5.13623224289
          5.07688554321 4.95642177551 4.78172590317 4.57359667801 4.37651823273 4.26316124298
          4.28941305756 4.43742862091 4.59915935883 4.6749864122 4.67161911072 4.69142796127
          8.32129486359 7.07202235016 6.4476391275 6.3734103653 6.53410626709 6.64133713028
          6.57290027237 6.32875162994 5.97017614288 5.57728766312 5.20680651398 4.8858828981
          4.62446458923 4.41248220032 4.2264432988 4.04069959793 3.82973419464 3.59090719368
          3.34191711357 3.11183576797 2.92055329277 2.7804892524 2.69666224602 2.67365166519
          2.70864526993 2.80012603218 2.94800104393 3.14109947159 3.35981007904 3.58264165619
          3.79573396011 3.99854973015 4.19437672493 4.3841401062 4.56033472534 4.71541797478
          4.83772003525 4.92279971664 4.9659349852 4.95696881989 4.88677581894 4.75502355087
          4.57659155106 4.38578755966 4.23717179367 4.1930156633 4.28418929398 4.44640772446
          4.56875606293 4.59849063248 4.58753849625 7.91794349213 6.76311136612 6.24311357025
          6.24893255508 6.44633965561 6.56099667816 6.48237767181 6.2157675882 5.83074746964
          5.41578192184 5.03028102386 4.70088724213 4.43526781921 4.21276542053 4.00521228836
          3.77965023575 3.51874657715 3.23112170914 2.94138283127 2.68003891045 2.46468858673
          2.30101383682 2.19422671593 2.14633266129 2.15562903198 2.22512811264 2.354726436
          2.54010143349 2.76827091385 3.01709105179 3.26818145164 3.51577965897 3.75729620857
          3.98964020988 4.20936542862 4.40712450859 4.57400972473 4.70298384758 4.7887201767
          4.82183191254 4.79577243347 4.70710783783 4.56168282593 4.38791809372 4.22749611786
          4.13622628632 4.16157431381 4.28946245728 4.4277764267 4.50025430573 4.49664104736
          7.44272912827 6.45905563004 6.09852682526 6.20048072479 6.42525997772 6.52340213882
          6.406244077 6.09216674408 5.66657085785 5.22603957581 4.82919557343 4.4994314212
          4.23207398453 3.99957537323 3.76533569992 3.49864318985 3.1917516333 2.86481442482
          2.54774980751 2.26835984924 2.03875641777 1.86406421692 1.74429954441 1.67905205685
          1.66922594566 1.71562391144 1.82069538021 1.98554676704 2.20547703964 2.4660350779
          2.74458641083 3.02732152527 3.3087593602 3.58369012657 3.8463848613 4.08794272141
          4.30005233414 4.47416908989 4.60303432426 4.67765446777 4.69138175201 4.6424553331
          4.53534266083 4.3865403653 4.22871488861 4.11233689194 4.08728432266 4.16522373154
          4.28935299957 4.37988613312 4.39663919342 6.95240286957 6.21256335007 6.04900355804
          6.24731192413 6.47996887848 6.53283192291 6.34599670624 5.96571068954 5.49263102081
          5.02667226837 4.62504179565 4.30203559586 4.03407635849 3.78552554062 3.51689970947
          3.20591851082 2.85871203217 2.50446355331 2.17269044144 1.88678022507 1.65395329124
          1.4762885252 1.35097300827 1.27773117458 1.25476392666 1.28161266434 1.36221666744
          1.49973843117 1.69545414223 1.94659038383 2.23650830666 2.5461895369 2.85946727951
          3.16983043022 3.47161089523 3.75748556458 4.01608028328 4.23587858322 4.40880995667
          4.52570205757 4.58119605843 4.57077839188 4.50006320251 4.38403825874 4.24378749161
          4.12176695114 4.06535964592 4.09631856949 4.18526168686 4.26878307724 4.29898086639
          6.5159817453 6.07315666153 6.11655053513 6.39433818695 6.60505971893 6.58032985092
          6.30113594223 5.84214015457 5.32070662262 4.83676693634 4.43900250763 4.12069828857
          3.84549906342 3.57172676071 3.26328299385 2.9090054982 2.52961155266 2.15791405388
          1.82294508331 1.53998298561 1.31346786736 1.1409252179 1.01797894417 0.943151126442
          0.911839260941 0.924269318542 0.982417781715 1.09126572136 1.2555068951 1.47895882526
          1.75790911064 2.0766279245 2.41431733215 2.75597195282 3.09253565651 3.41816110672
          3.72058353592 3.98754606575 4.20689459976 4.37037321854 4.4690787178 4.50083567261
          4.46820402946 4.38400031975 4.27110148972 4.16033303101 4.09036143616 4.08532857346
          4.1342500412 4.19501112518 4.22065648499 6.22114204865 6.08832876724 6.30373578354
          6.61750815887 6.76939880341 6.6437629689 6.26133044815 5.72399869492 5.16121805206
          4.66700556503 4.27534888824 3.95679299805 3.66433726509 3.35534244324 3.00421482101
          2.61171101868 2.20873647057 1.83044548134 1.50242931374 1.23282648006 1.02057003742
          0.860281031837 0.745843321609 0.67334492794 0.638870022831 0.640352969112 0.679102406979
          0.760455421867 0.892003657265 1.079082206 1.32772547329 1.63391042034 1.97878240913
          2.34261024239 2.71169446594 3.07416167892 3.41919964569 3.73244046341 4.00127264656
          4.21442675407 4.3611862413 4.4375625959 4.44820144089 4.40037309502 4.31670847961
          4.22258093506 4.15260635666 4.12846323547 4.14382037262 4.17511262085 4.18203249985
          6.12453036026 6.24977589005 6.57139977554 6.86640985992 6.93194830795 6.69447927139
          6.21279523117 5.61128186798 5.01996720581 4.52231618622 4.13304988129 3.80587112503
          3.48521548225 3.13408609428 2.73910632027 2.31533030937 1.90034140388 1.52887624523
          1.21734065102 0.96811783989 0.774482325134 0.629477952766 0.526950039616 0.461399441452
          0.427382087402 0.422151569214 0.445956215134 0.50380111515 0.60327496645 0.75287538311
          0.961063117561 1.23436235542 1.56649197197 1.93730492527 2.32915509689 2.72654128975
          3.11330447121 3.47468895569 3.79583683189 4.06164665115 4.2607693116 4.38707221619
          4.44329697807 4.43639274361 4.38280657646 4.30709245674 4.24159316895 4.20561463898
          4.20022251862 4.20594915756 4.19366595642 6.21586910431 6.49888958252 6.84684669342
          7.08134535614 7.04489277847 6.70768712982 6.14808617889 5.50218521866 4.89633408432
          4.40102763092 4.00981893448 3.66007894943 3.30103114624 2.90438390823 2.46908663277
          2.02552984695 1.61342559444 1.25932203518 0.970819930115 0.743713508663 0.57021851368
          0.443309102116 0.354757972012 0.298152956524 0.26811969595 0.260930953026 0.275568820305
          0.31493330472 0.386536071339 0.500074635315 0.66681519352 0.896497599163 1.19428286873
          1.55191541325 1.95185273232 2.37503032608 2.80204369186 3.21233557175 3.58828245941
          3.91127111519 4.16671383293 4.34643269722 4.4496434864 4.48595668335 4.46456870354
          4.40875707939 4.34887082207 4.30423477829 4.28297151093 4.2727724826 4.24375643585
          6.40720632416 6.74300933319 7.05753240387 7.21066834702 7.08437149414 6.6730834256
          6.06617559097 5.39948491272 4.79345359177 4.29985968811 3.89440014999 3.51223395859
          3.10982730156 2.66746918259 2.20231485954 1.75422902206 1.35712952171 1.02632330326
          0.761446237583 0.557624335804 0.406486572037 0.298204638357 0.224884111776 0.179469373446
          0.155275804176 0.14809975791 0.156744820609 0.182943128862 0.232526554241 0.31516067482
          0.442541366825 0.626892654724 0.879301278419 1.2039844569 1.59299288921 2.02826920372
          2.48771152481 2.9458820118 3.37669526863 3.75846915306 4.07237163528 4.30648253174
          4.45922381271 4.53863891708 4.55162780457 4.51832242447 4.4677432132 4.41804952789
          4.38185700455 4.35693334106 4.31389864441 6.59624985443 6.90815503403 7.16066608429
          7.23607420914 7.04773106201 6.59482814911 5.97094135223 5.30443196381 4.70667976105
          4.21003813461 3.78008753036 3.35941219406 2.91292440994 2.43198141502 1.95272734833
          1.51323197479 1.13843814125 0.830777893448 0.590232151318 0.410109927959 0.280689739704
          0.191829753318 0.134373209004 0.0996553225088 0.0810825152135 0.0749492606473 0.0796881293678
          0.0967368372917 0.130419229317 0.188038777218 0.281666749029 0.42410476244 0.628926527557
          0.90979137125 1.26997302036 1.69870849346 2.17587722984 2.6723275293 3.15464614288
          3.59467598793 3.9685092585 4.2591525042 4.46225670837 4.58416566101 4.63205612305
          4.62269526764 4.58240059113 4.53177790222 4.48693073578 4.44819322006 4.39429621689
          6.74904199127 6.97555822357 7.14671048218 7.15892519653 6.93611415375 6.47784430542
          5.86363587677 5.21650699738 4.62987549683 4.12392812027 3.6618450946 3.2016937532
          2.71488658745 2.2117389257 1.73447401581 1.31353284325 0.958851884003 0.673346563721
          0.455681197796 0.298520068512 0.18976635159 0.118189142659 0.0747251537359 0.0501482439172
          0.03764296947 0.0333282804978 0.0357343856621 0.0456972848153 0.0667890114975 0.105827167225
          0.172336757221 0.279722283497 0.441100512486 0.674633467751 0.993705157757 1.39902852608
          1.87598492088 2.39527185867 2.91942819839 3.41341370499 3.84668115356 4.19504816093
          4.44881875984 4.61508003052 4.69844452667 4.71386670227 4.68559340179 4.63792030426
          4.58705751617 4.53662293793 4.47267210358 6.88283261703 6.97700502457 7.04409865097
          7.00308520905 6.77350514923 6.33771244995 5.75443606613 5.13511356415 4.55612949783
          4.03405329102 3.53969832169 3.04359063644 2.52918101181 2.02203997864 1.55778573738
          1.15409228436 0.817328802204 0.553831605949 0.35672355876 0.218913447704 0.127077971261
          0.0705145626569 0.0394009752077 0.0231647695349 0.0155452792026 0.0131206642246 0.0142022370192
          0.0193788550135 0.0313911646938 0.0560416001058 0.102052024996 0.181153721232 0.307518564272
          0.498295922203 0.771978509941 1.14012913383 1.60048545692 2.12473621033 2.67599911407
          3.21379819641 3.70021876152 4.10568350769 4.41240646118 4.62272743073 4.74231110031
          4.78576240875 4.77338233047 4.73056912659 4.67713796646 4.6177494278 4.54604652573
          7.04474273956 6.97369793182 6.9155914563 6.8172836557 6.5933141011 6.19357245834
          5.6518161763 5.05885333893 4.48138661697 3.94024371475 3.41838732117 2.89855349762
          2.37584489243 1.87572054886 1.42489735394 1.03522373104 0.714802460423 0.467903411322
          0.287521214972 0.164470456376 0.0871004552484 0.0431103121948 0.0205704342842 0.0100172004128
          0.00580095388886 0.00468995418068 0.00529848400112 0.00806978819832 0.014889912467 0.0298988302195
          0.0608989286375 0.118580253603 0.217673529739 0.373960856409 0.604953685074 0.931205547256
          1.36078921268 1.87317922157 2.43233168404 2.99846831093 3.52768570015 3.98468751343
          4.34493254929 4.60111980286 4.7606630159 4.83405986313 4.84077343643 4.80654931412
          4.75389349197 4.69160546661 4.61346014679 7.23466226288 7.00317765747 6.80984640396
          6.64554642075 6.425131772 6.06198963043 5.55991586487 4.99070166626 4.41156753036
          3.8552785524 3.31476838562 2.78618433876 2.26821133163 1.77759182304 1.33588831875
          0.955687218323 0.646976169777 0.411581110106 0.242600570517 0.131119175248 0.0644820938945
          0.0287978145123 0.0114813956356 0.00458438168053 0.00236828367231 0.00178074499127 0.0021094476652
          0.00360903667927 0.00769937064655 0.0176255927709 0.0394761229807 0.0828993134034 0.16168587152
          0.291643365655 0.488699421616 0.774310799809 1.16474554661 1.65169821022 2.2036683493
          2.78030185684 3.33612991257 3.83292440567 4.24172242172 4.54635822586 4.74806557144
          4.85470900909 4.88542790741 4.86556163757 4.81846124588 4.7564845401 4.67563336014
          7.4466688063 7.07446569839 6.74820024017 6.50847067291 6.28143954742 5.95114744919
          5.48309613007 4.92911181366 4.35033682083 3.78848084358 3.24332489555 2.71855086075
          2.20910036736 1.72512334831 1.28850057323 0.913706817341 0.610558486385 0.380659959936
          0.219035218005 0.114459215195 0.0533999758804 0.0219428108311 0.00770778881546 0.00274289699081
          0.00133385638241 0.000994131984692 0.00117624962326 0.00213086094379 0.00497850008484 0.0122712533379
          0.029531549201 0.0651269743919 0.131039962025 0.24252250833 0.413917169838 0.666372431526
          1.01780980652 1.4685285836 1.99804253067 2.5706990097 3.13822256592 3.66062216019
          4.10736017998 4.45572142303 4.6994303981 4.84269644897 4.90469651337 4.90621180222
          4.86940306396 4.81039183426 4.73159188553 7.64712977051 7.17526812485 6.73467886475
          6.41515571899 6.1685942836 5.86017370056 5.41772944565 4.87591387436 4.30724313705
          3.75240725883 3.21692690674 2.70247492447 2.19853941208 1.71644920761 1.28108788815
          0.906927863293 0.603455704899 0.373555313902 0.21377219944 0.11061629159 0.0503950802588
          0.0200263680938 0.00682689104073 0.00240830061436 0.00117835493086 0.000919581909142 0.00107576445581
          0.00185169148924 0.0043728786755 0.0109886604358 0.0265808646286 0.0586560266185 0.118280776803
          0.218834117298 0.373230608196 0.600202049046 0.919048798294 1.3322910989 1.8282691494
          2.38224206924 2.9491456118 3.48296619804 3.95364120125 4.33473522339 4.61450114899
          4.79557351746 4.89351005554 4.92143075394 4.90257368958 4.85444159256 4.78391861862
          7.80269783234 7.2650860141 6.7460363205 6.3520633548 6.08112100006 5.78576698944
          5.36473004532 4.84079174713 4.28903111526 3.75576510933 3.23929641357 2.73381914711
          2.23358624016 1.75031758453 1.31167260921 0.93317755085 0.62496764967 0.390154516172
          0.225402958374 0.118613354545 0.0552552857566 0.0225455787235 0.00818660167247 0.0031064452219
          0.00152449824337 0.00119337415222 0.00141628299713 0.00238286523812 0.00517350324616 0.0125943982929
          0.0290147486019 0.0612211705291 0.119541081762 0.215121868966 0.359655731792 0.569726979513
          0.862212194214 1.24369001766 1.70435477997 2.22870412498 2.780289907 3.3129619677
          3.79280823608 4.19297822952 4.49963300064 4.71568973618 4.84691248688 4.90656028778
          4.91469641296 4.88848283112 4.83235379272 7.89442312973 7.309508069 6.74335570679
          6.29581030304 6.00286315887 5.72330701752 5.33050993774 4.83352207962 4.30717916077
          3.79957913101 3.30373326477 2.80819134254 2.31092079185 1.82555158455 1.38014498177
          0.993163254738 0.677554785786 0.431680351124 0.256263845043 0.140417591484 0.0694338158929
          0.030783951292 0.0127185487604 0.00555529678836 0.00295123967167 0.00230825970177 0.0026829261684
          0.00423558324344 0.00838698102921 0.0181754626834 0.0374910585523 0.0730432870364 0.1338665801
          0.229670899668 0.371046403308 0.571243150682 0.844855618992 1.19916640079 1.6284024279
          2.12015131088 2.64548063423 3.16515784988 3.64089177673 4.04662237289 4.36831531387
          4.60859205963 4.76939775055 4.86132212814 4.90280351257 4.9069980986 4.87372372559
          7.89728079376 7.2830081456 6.68977971329 6.21362884857 5.91495691376 5.66146031006
          5.31041784546 4.85405200836 4.35656004364 3.87192604599 3.39807416489 2.91642203194
          2.42534530586 1.94043128998 1.48736836403 1.09071097237 0.7628209128 0.503206485357
          0.311539464159 0.181299829731 0.0978815738702 0.0486788902068 0.0236732000685 0.0121981512883
          0.00747347634301 0.0061478159618 0.00689012108807 0.0097937031699 0.0165257364887 0.0302203451824
          0.0547089228296 0.0959853832793 0.162683161831 0.263072959681 0.406645421505 0.602851365604
          0.864782465343 1.19834619755 1.6002617614 2.06024375931 2.55504844566 3.05131095451
          3.51233219681 3.91058293442 4.23560909027 4.48887743073 4.67176354401 4.79129633926
          4.86770227951 4.90783350433 4.90437495407 7.81008144012 7.16998760773 6.57075432571
          6.0842820134 5.78928460815 5.57659023468 5.28768711029 4.88137294022 4.41974327042
          3.9599845356 3.50925401062 3.04754291107 2.56965014236 2.09062894966 1.63480909721
          1.22891908195 0.886878985081 0.61054861124 0.399312420464 0.249209330106 0.148664441876
          0.0845265505648 0.0482720012867 0.0292692547947 0.0204417646743 0.0174460327672 0.0182976754905
          0.0230958942461 0.0336238379329 0.0529013346863 0.084996723361 0.134725664229 0.210675774598
          0.320305392699 0.469543017864 0.666840297508 0.922696503811 1.24158314083 1.62115036819
          2.05267391014 2.51479928772 2.98150125198 3.41841956291 3.80132766251 4.12148614655
          4.37799866501 4.57292221024 4.71516238129 4.82159880707 4.8944566156 4.92197858887
          7.66020412079 6.99477546494 6.39110424042 5.90252063171 5.61016214691 5.44503840439
          5.23049412506 4.8902513092 4.47609844147 4.04888161484 3.62592542542 3.18865793633
          2.73172093552 2.26679979691 1.81647483978 1.40788963909 1.05382322495 0.761748303566
          0.530068900452 0.356472170157 0.233217544351 0.150383702559 0.0976849896336 0.0668310202968
          0.0506704841363 0.0440000972849 0.0443185957482 0.0512027037805 0.0664401968241 0.0933121518314
          0.135136501796 0.196292999735 0.284301518645 0.406430738382 0.565361200886 0.767767025509
          1.02279503704 1.33318920956 1.6951384885 2.10127533989 2.53162350388 2.96467011604
          3.37248098015 3.73296008186 4.03955661003 4.29211753235 4.49477610931 4.6545952478
          4.78221079666 4.88016279419 4.93505554596 7.4800391275 6.789798423 6.18026318008
          5.68768903427 5.39138189545 5.25899853973 5.12298781036 4.86369801727 4.5106326622
          4.12547236267 3.73424149101 3.32885109787 2.89978709129 2.4605306852 2.02558579185
          1.62398851463 1.26688451958 0.963082247849 0.712171930828 0.514968231201 0.366654284229
          0.260387692223 0.187287220316 0.140118627057 0.112246704581 0.0986127199328 0.0964582414711
          0.10486804408 0.125381141148 0.161089440646 0.214463660278 0.288907902117 0.391401785994
          0.527530030041 0.700008321304 0.912407301483 1.17076653126 1.47622175838 1.82517190556
          2.20870391457 2.61069542175 3.01031266953 3.38405249802 3.71767798149 4.00642768723
          4.25106523087 4.45463831589 4.62212826431 4.76630475479 4.88369778595 4.95811586517
          7.29363899994 6.57945661163 5.96290420013 5.46819903702 5.15412218475 5.03088608521
          4.96288067474 4.79322654678 4.51436878723 4.18003511047 3.8242386467 3.45388985062
          3.06260719376 2.65911963326 2.25473790558 1.87176387489 1.52322652252 1.21630116051
          0.954427119751 0.735451208229 0.561960118551 0.431351365833 0.334919538155 0.266989302087
          0.224092916126 0.199993969386 0.192839762549 0.201778046961 0.226952166777 0.270693834844
          0.335939912348 0.425019692039 0.54313756072 0.695770017357 0.885202423248 1.1104131642
          1.37512776531 1.67892994431 2.01828531609 2.38340117203 2.75951786568 3.12764822273
          3.46902381523 3.77287267769 4.03744139038 4.26616318039 4.4622269754 4.63178161758
          4.78545692535 4.91801947815 5.00837197784 7.12630548096 6.38411818924 5.75640274292
          5.25670552628 4.92591744965 4.79068678314 4.7636485704 4.68047192719 4.48282206909
          4.20746348999 3.89378593269 3.55940616577 3.20888264297 2.84691557533 2.48520438431
          2.13703686577 1.81353907906 1.5185771656 1.25560525856 1.02842580067 0.836440599995
          0.681310782509 0.560833504219 0.470867307415 0.408127624788 0.369632154851 0.353801770449
          0.359658268986 0.386960121388 0.436989181547 0.512363425627 0.616341613636 0.752504129639
          0.923887423306 1.13107813389 1.37069204659 1.64544063118 1.95276742775 2.28640954132
          2.63654624878 2.99020447159 3.32888288834 3.63717469727 3.90713414047 4.14101386322
          4.34405315628 4.5237806572 4.6893125087 4.84886938522 4.99319526779 5.09453450882
          7.00366878876 6.22239032394 5.58044591766 5.06931943192 4.72279796021 4.56900661469
          4.55321199509 4.53808071136 4.42557207962 4.21487056549 3.94744791267 3.64945014107
          3.3383933374 3.02109749031 2.70597527603 2.40354474159 2.12047037231 1.85455451538
          1.61064250481 1.38904713123 1.1920031712 1.02277976025 0.880770306015 0.767163656578
          0.682412251892 0.626135145264 0.596689359846 0.593941563025 0.618335522118 0.671328110056
          0.75609640274 0.875639301052 1.03074778301 1.22154141939 1.44666115089 1.7038303891
          1.99282092682 2.30831796059 2.6410545166 2.98053678726 3.31419519241 3.62322036507
          3.89337205025 4.12243927765 4.31750580841 4.4872789183 4.64334182831 4.79925837753
          4.96144876984 5.11626340561 5.21740202942 6.94442348724 6.11056341049 5.44946072845
          4.92109389725 4.55675118729 4.37901256241 4.35601372086 4.38071415314 4.34348129166
          4.20470304718 3.99003137268 3.73473835831 3.46354328011 3.18889552849 2.92114886307
          2.66851386581 2.43251455711 2.2116688829 2.00169545586 1.80397655411 1.61784533791
          1.44604050941 1.29179656765 1.16016265118 1.05399551147 0.976531228848 0.92972276926
          0.913995979214 0.931326394615 0.984962184811 1.07859560408 1.21275154217 1.38553325493
          1.59651650604 1.84373906311 2.1238196442 2.4332775341 2.76190588394 3.0987688681
          3.43058104233 3.74062692757 4.0136766169 4.24082649399 4.42366246552 4.57034674515
          4.69806591141 4.82408755386 4.96240483185 5.11943362946 5.27337068558 5.35469081055
          6.9464928746 6.05608900421 5.37358631577 4.82621984222 4.43401524994 4.22302417404
          4.17799374527 4.21611623322 4.23712007965 4.17434189789 4.02507257843 3.82325345818
          3.5983593055 3.37291643425 3.15496151932 2.95324036438 2.76877954453 2.59716824463
          2.43353519386 2.27055528481 2.1089597258 1.94961829758 1.7959644841 1.65471577614
          1.53062953693 1.42984204811 1.35923387283 1.32480117119 1.33245189873 1.38327920086