<VTKFile type="PolyData" version="1.0" byte_order="LittleEndian" header_type="UInt64">
  <PolyData>
    <Piece NumberOfPoints="2601" NumberOfVerts="0" NumberOfLines="0" NumberOfStrips="0" NumberOfPolys="2500">
      <PointData>
        <DataArray type="Float32" Name="zvalue" NumberOfComponents="1" format="ascii" RangeMin="-2.29343129801" RangeMax="2.85555627574">
          2.85555627574 2.69332286442 2.57116133635 2.47909547578 2.40736880386 2.3471036201
          2.28994435077 2.22938799696 2.16199222767 2.08941305587 2.01624813372 1.9492218015
          1.89353183728 1.85314600014 1.83031970495 1.82536818102 1.8378563105 1.86512262845
          1.90342739123 1.94662933753 1.98953446825 2.02979631716 2.0660179006 2.09860274007
          2.12814378822 2.15447963947 2.17563123049 2.19102225107 2.19876180702 2.19795785975
          2.18810880313 2.16968057377 2.14352343957 2.10912389144 2.06613329536 2.01416058304
          1.95374364524 1.88563431643 1.8093392548 1.72790537023 1.653613133 1.60427719158
          1.59017490239 1.60685724324 1.64389096937 1.69543501227 1.76309272048 1.85349846325
          1.97054776091 2.11045641728 2.26725971522 2.69874994837 2.56206548757 2.4565133774
          2.37219755361 2.30267314066 2.23960000102 2.17819110603 2.11357852682 2.04413596518
          1.97266552681 1.90309066622 1.84101724064 1.79233159059 1.75949077104 1.7443615417
          1.74550875145 1.76158839389 1.78838471776 1.82261599177 1.86125310298 1.90190760227
          1.94199726722 1.97913206331 2.01280323047 2.04405216591 2.07347156508 2.0990688569
          2.11904811334 2.13275472948 2.13891677295 2.13720458 2.12733202343 2.10884207924
          2.08196828589 2.04619538849 2.00038599382 1.94382156244 1.87709861784 1.80108193232
          1.71852091213 1.63966822805 1.58350327406 1.5648473131 1.5791005551 1.61229319709
          1.65608359259 1.71216829935 1.78770284304 1.88780325185 2.01310322531 2.15961505598
          2.575650655 2.44643306388 2.34230056767 2.25876789856 2.18894771004 2.12683946736
          2.06589769252 2.00200810004 1.93429653846 1.86497805297 1.79974470443 1.74466130447
          1.70485848082 1.68208994897 1.67598106625 1.68384297519 1.70237935891 1.72854458629
          1.75799086181 1.7909127763 1.82628717912 1.86360761037 1.89901307214 1.93134745835
          1.96211635118 1.99206046211 2.01887690963 2.04136383698 2.05852773923 2.06979627697
          2.07431903043 2.0715507304 2.06103395754 2.04188334219 2.01400249086 1.9758944285
          1.92633131837 1.86461701489 1.79211724712 1.71208594239 1.63414935089 1.57460790706
          1.55116849407 1.56152220412 1.59058981625 1.62745111792 1.67299914801 1.73329062504
          1.81489567263 1.92167696109 2.05484402785 2.45865757797 2.32272204377 2.21814475839
          2.14115191978 2.08180766048 2.03061122397 1.97790893375 1.91870631568 1.85367356504
          1.78590513926 1.72273728044 1.67163642216 1.63807099558 1.623019163 1.6233405995
          1.63543063925 1.65629498595 1.68123291805 1.70686476372 1.7339836196 1.76318891112
          1.79406762355 1.82542521956 1.85509714206 1.88382861046 1.91289700619 1.93900198621
          1.96144735239 1.97996762345 1.99398321863 2.00292045803 2.0062730057 2.00315678858
          1.99196798269 1.97179691549 1.94185456029 1.90080638736 1.84739115365 1.78203235101
          1.70760516561 1.63241983775 1.57192055617 1.54345811142 1.54967553495 1.57510153334
          1.60576006203 1.64062868979 1.686226727 1.74937191815 1.83675431559 1.95292726843
          2.34223238077 2.20295531623 2.10635866838 2.04672567754 2.00861843112 1.97538415577
          1.93468445227 1.88129422762 1.81753470762 1.74962822713 1.68702123944 1.63675546653
          1.60414382472 1.58902105183 1.58839380625 1.59979265425 1.61960517052 1.64276935928
          1.66464243544 1.68521402752 1.70650747186 1.72998490319 1.754684351 1.78007782295
          1.80597431546 1.83366252065 1.85951800269 1.88125576783 1.89968948949 1.91485349139
          1.92675627452 1.93487439462 1.93789008607 1.93419814603 1.92209115543 1.90070268251
          1.86866423272 1.82491741699 1.76921847895 1.70308603057 1.63283619307 1.57191521552
          1.53830400068 1.53927218121 1.56291492253 1.59041454097 1.61581740153 1.64625917136
          1.69148060252 1.75938811325 1.85710852891 2.25632224376 2.11979347361 2.03434918077
          1.99416634939 1.97706483906 1.96038350944 1.9285050096 1.87800186304 1.81391285331
          1.74551680571 1.68265363073 1.63204942797 1.59666642145 1.57711003061 1.57177419793
          1.57779939993 1.59130082333 1.60857728824 1.62482811234 1.63742184261 1.64896694128
          1.66334153394 1.68087730273 1.70068822454 1.72302658316 1.74914734446 1.77584315087
          1.79875052642 1.81770197925 1.83366618409 1.84740935574 1.85902079156 1.8672354201
          1.87043254476 1.86652706566 1.85408257733 1.83186937883 1.79869189036 1.75378146799
          1.69782823344 1.63461793831 1.57422465298 1.53418206044 1.52750229975 1.54914978621
          1.57785831039 1.59935502545 1.61690154943 1.64437912556 1.69254203315 1.7707866053
          2.21570347172 2.07861046281 1.9965299817 1.9669638715 1.96465831547 1.95922008589
          1.9331896016 1.88496062094 1.82220728874 1.75517151408 1.69317054689 1.64100345292
          1.60185355144 1.57646022327 1.56367329066 1.56122096176 1.56466239327 1.57106662605
          1.57647585317 1.57937947113 1.58138133246 1.5865544318 1.59694509314 1.61189894758
          1.63132758527 1.65631918945 1.68454977078 1.71063981589 1.732404184 1.75040138467
          1.76596257465 1.77997241711 1.79263013687 1.8023616429 1.80648545999 1.8031899175
          1.79070491731 1.76842922685 1.73476451569 1.6898873438 1.63579072845 1.57829401893
          1.53225192813 1.51462733625 1.53055693926 1.56205968838 1.58663697254 1.59882393047
          1.6109204502 1.6401376892 1.69779969171 2.20032573319 2.05710009624 1.97080875975
          1.94547381905 1.9515194313 1.95376323246 1.9330937433 1.88859888978 1.8290870725
          1.76444512878 1.70350803952 1.64990244744 1.60730623577 1.57597668804 1.55478874437
          1.54150467215 1.53215750046 1.52346821651 1.51385098297 1.50300197558 1.49376320936
          1.48991601963 1.49421940516 1.50564654378 1.52409372116 1.5493919565 1.58008984611
          1.61145425057 1.63897158749 1.66174528004 1.68107395725 1.69906798042 1.71627038191
          1.73159800069 1.74308815118 1.74859964508 1.74608712394 1.73432475548 1.71218573266
          1.67867700195 1.63480793124 1.58283560191 1.53328132559 1.50387443785 1.50805210711
          1.5381748131 1.57005323458 1.58657097141 1.59050781161 1.60236236052 1.64029627707
          2.18807672038 2.0360172146 1.94401157697 1.92095228533 1.93318536255 1.94125724245
          1.9250725595 1.8849068282 1.82845735116 1.76549875163 1.70434454883 1.64944139005
          1.60321298678 1.56630847361 1.53771691046 1.51392172909 1.49061625246 1.46482841203
          1.43614431486 1.40784790389 1.3835458091 1.36865542807 1.36436320669 1.37190890793
          1.39066044104 1.4188975464 1.45440383599 1.49303527037 1.53023768277 1.56194135085
          1.58889027966 1.61371470441 1.63698365723 1.65849257177 1.67726204852 1.69116881977
          1.69830306582 1.69690765653 1.68555797058 1.66345440616 1.62995404697 1.58619000747
          1.53770164097 1.49859396328 1.48707101634 1.50876599493 1.5451811707 1.57162247396
          1.57813225892 1.57837050442 1.59735698297 2.16624884591 2.00750198421 1.91291395581
          1.89365973058 1.9118196969 1.92434874403 1.91223667422 1.87494020133 1.81983590377
          1.75632827677 1.69298408501 1.63467417343 1.58456892709 1.54301525659 1.50775040694
          1.47394947243 1.43698391503 1.39293079504 1.34371854097 1.2949170607 1.25301020441
          1.22321562009 1.20756031854 1.20836364024 1.22589062433 1.25746758681 1.30017528967
          1.34915849355 1.39916538045 1.44408116119 1.48330535677 1.51893863892 1.55192788015
          1.58256137624 1.60983860528 1.63237713347 1.64823108276 1.65632308385 1.65560220208
          1.64420362897 1.62065907415 1.58549882602 1.54192894185 1.49884556407 1.47319685036
          1.47919551828 1.51236046854 1.54738363289 1.56339112832 1.56268568351 1.56682848
          2.1307636007 1.97018767205 1.87910454612 1.86770307402 1.89222395895 1.90825829253
          1.89805458886 1.86078037165 1.80338762325 1.73647359458 1.66899024454 1.60661049868
          1.55275424008 1.50684737912 1.46474579542 1.42086475857 1.36857178864 1.30587227978
          1.23602861661 1.16684266401 1.10544002413 1.05796015902 1.02842665112 1.0201647427
          1.03270225675 1.06475419542 1.11448598032 1.17591261532 1.24121369711 1.30363033601
          1.35988209806 1.41063318678 1.45730642848 1.50054675053 1.53908727503 1.57182284829
          1.59690369334 1.61398749072 1.62253871794 1.62076725635 1.60678957246 1.58001395258
          1.54256954353 1.50091407868 1.46722247524 1.4569894378 1.47800472708 1.51433741003
          1.54089266852 1.54724131511 1.5449076038 2.08168196657 1.92616089083 1.84736974731
          1.84828669721 1.87890606224 1.89626912473 1.88439602837 1.84304929841 1.78015025391
          1.70761342359 1.63516043816 1.56880074294 1.51188413788 1.46157932725 1.41225745615
          1.35574500415 1.28612771647 1.20330909686 1.1123122907 1.02246492417 0.94183706257
          0.875891080164 0.830395843783 0.80929895812 0.813428883937 0.843775139732 0.898015323675
          0.970817338195 1.05370937917 1.13690021171 1.21437297012 1.28530750565 1.34996647394
          1.40845699794 1.46079066094 1.50565936893 1.54201731672 1.56923735969 1.58693054667
          1.59368080115 1.58837206404 1.57009562216 1.53937650439 1.50138891799 1.46498911098
          1.44367284612 1.44963864924 1.4792067725 1.51023096395 1.52611158582 1.52532582967
          2.02058406988 1.88084663376 1.82431165499 1.84062593601 1.87568079574 1.89060915619
          1.87276234302 1.82328506488 1.75207759845 1.67260791804 1.59517580505 1.52593269177
          1.4660464076 1.41088340084 1.35204853465 1.28055688271 1.19141983443 1.0868144419
          0.973710150042 0.862197668839 0.760224546931 0.675015906403 0.612099554681 0.576080670114
          0.5705421321 0.596429161506 0.652687297663 0.735031059263 0.835287613666 0.942361936363
          1.04541768296 1.14017689547 1.22634840111 1.30391500155 1.37279993485 1.43220961608
          1.48161643498 1.52042506254 1.54820790131 1.56394972895 1.5668188358 1.55655500435
          1.53371012527 1.50108188477 1.46527070549 1.43801757491 1.43205239079 1.45049463714
          1.47918183572 1.49959762939 1.50333027184 1.95336839132 1.84254183021 1.81629004561
          1.84803140425 1.88403001561 1.89203185069 1.86345927242 1.80265171435 1.72144984206
          1.63445676807 1.55287640655 1.48206706936 1.41926393194 1.35725824896 1.28561722504
          1.19571435022 1.08475404937 0.957226724369 0.820964346171 0.686515351044 0.561872263746
          0.455073049045 0.372234371572 0.320438069804 0.303627215285 0.323251414236 0.379953549692
          0.469840135361 0.585257993966 0.716175181054 0.848657638323 0.973120694607 1.085009279
          1.18473812736 1.27301672518 1.35001556308 1.41490132295 1.46692426172 1.50603325099
          1.53162815568 1.54355364532 1.54132573699 1.52607004308 1.50052403745 1.46874666146
          1.44025374922 1.42680262145 1.43420760984 1.45518162063 1.4744844983 1.48137289282
          1.88948819854 1.8202103216 1.82721517657 1.87093074916 1.90286242332 1.89916736521
          1.85647546559 1.78206936387 1.69022618013 1.59671065062 1.51270727594 1.44000058559
          1.3725754516 1.30066205842 1.21291757844 1.1016096249 0.966836136672 0.814441402062
          0.653857908379 0.494685867155 0.346046165212 0.215857244854 0.111522541074 0.0422460614397
          0.0117697251873 0.0239794984263 0.079197225784 0.175016373263 0.304175476704 0.45676565847
          0.619451721349 0.77777685561 0.922001328198 1.04941222399 1.1608154777 1.25793844024
          1.34040316905 1.40794480607 1.46021713393 1.49747189922 1.51931159111 1.52623795495
          1.5191201363 1.50051557652 1.47501503449 1.44934733352 1.43278699183 1.43158521304
          1.44320622652 1.4574541457 1.46340735483 1.84389989573 1.82266506111 1.85688153625
          1.90471727608 1.92707659198 1.90861807312 1.85023754544 1.76198708681 1.66036256877
          1.56171834363 1.47598626251 1.40039275952 1.32557182055 1.23992156757 1.13276080773
          0.997579807865 0.836700392445 0.657750795628 0.471520798847 0.287301860229 0.113837517814
          -0.0405292958633 -0.167421135571 -0.257030110076 -0.302633256005 -0.300628221218 -0.249612782215
          -0.150293469591 -0.00802848494528 0.164736344316 0.35608259984 0.550379216321 0.731782342087
          0.893067238977 1.0337873144 1.15504355935 1.25823359037 1.34350179698 1.41129732715
          1.46196446613 1.49541470405 1.51238999474 1.5147318671 1.50416030334 1.4853947308
          1.46385266253 1.44753205536 1.44183862574 1.44546389484 1.4528104461 1.45442778001
          1.82849799537 1.84841951938 1.89782969931 1.94110000741 1.95046380938 1.91611041058
          1.8425785628 1.74244349374 1.63314803392 1.53089591847 1.44292274538 1.36248083781
          1.27681857887 1.17374638241 1.04348932669 0.881836051819 0.693317867934 0.487890356956
          0.275615046123 0.0658980714265 -0.134123196124 -0.315426133866 -0.466888423158 -0.577322609975
          -0.63982996961 -0.649797370768 -0.605216498516 -0.504510414824 -0.352007330714 -0.159141834648
          0.0592713466102 0.28845354136 0.510720801454 0.711627819351 0.88754350014 1.03905380511
          1.16729983792 1.27387816696 1.35990850397 1.42591082556 1.47264848941 1.5012004214
          1.51365295512 1.51213214636 1.50024931824 1.48321516516 1.46824137037 1.45991990097
          1.45866676988 1.45999759153 1.45714090333 1.84306537172 1.8869013898 1.93828784344
          1.97148674101 1.96639780476 1.91805243396 1.83227520548 1.72315673924 1.60870446039
          1.50430573313 1.41337897267 1.32443995437 1.22407866395 1.10007252475 0.943550439928
          0.75402111104 0.538494638247 0.306986071909 0.0684246448505 -0.169942286722 -0.400151479949
          -0.610076872177 -0.787989931201 -0.920919034653 -0.999347132967 -1.0190686048 -0.979313548127
          -0.879637483185 -0.720444235524 -0.51070123931 -0.265509453819 -0.00350854860158 0.257956772443
          0.501935471152 0.718743156855 0.906252648907 1.06541521013 1.19765355136 1.30516089154
          1.38910817742 1.45084393679 1.49210213362 1.51504887526 1.52299873898 1.51832403062
          1.50602152338 1.49265031613 1.48256652768 1.47772692151 1.47539724332 1.46873951196
          1.87291022804 1.92322759587 1.96816528524 1.98933469872 1.97190804099 1.91295643753
          1.81907880635 1.70465443562 1.58789831019 1.48157265135 1.38489341776 1.28432640605
          1.16621713556 1.01793325007 0.833915077464 0.617468988136 0.376468419428 0.118958613959
          -0.149142630553 -0.419121428924 -0.680257466925 -0.92078923911 -1.12428673939 -1.27486256861
          -1.36541073331 -1.39392436406 -1.35967260327 -1.26250935962 -1.1010355597 -0.879089665441
          -0.611490944262 -0.318976467476 -0.0209159428141 0.265424543879 0.526497903032 0.755309068986
          0.950773903969 1.11379051826 1.24608220715 1.35027051234 1.42848461162 1.48307675935
          1.51715239253 1.53442098637 1.53721722384 1.53003152757 1.5190192565 1.50808038033
          1.50003747048 1.49446093784 1.48475834527 1.90154764647 1.94707447582 1.98247157178
          1.99280385065 1.96679497236 1.90133531027 1.80351367579 1.68721935099 1.5700065674
          1.46094675201 1.35585771275 1.24109868853 1.10291117186 0.929002164217 0.719169322752
          0.478239604545 0.213851022193 -0.071734597892 -0.370727286793 -0.673129031472 -0.965770567089
          -1.23158468333 -1.45084052387 -1.61116278663 -1.70880246644 -1.74325928626 -1.71653254543
          -1.6258882946 -1.46785489307 -1.24466016479 -0.963207435865 -0.646063686324 -0.316182337296
          0.00974374639741 0.31479104648 0.587068903741 0.822365573616 1.01968723066 1.18008355789
          1.30689286123 1.40327665681 1.4722776587 1.51781739329 1.54418781253 1.55435980637
          1.5523796679 1.54381092524 1.53294079055 1.52321111539 1.51473005961 1.50280908545
          1.9241087872 1.95664634127 1.98054763931 1.98223177332 1.95105605098 1.8837070785
          1.78568034151 1.67081650827 1.55389888013 1.44076552928 1.32490955369 1.19443559535
          1.03492197213 0.838000023026 0.606757800531 0.346092133288 0.0571851928173 -0.257027994877
          -0.587560534439 -0.919997421889 -1.23868036491 -1.52239296549 -1.74454108975 -1.89613218014
          -1.98309212411 -2.01494091753 -1.99705534953 -1.9262242014 -1.79102566954 -1.5807184564
          -1.30071590045 -0.968315126353 -0.614150227216 -0.25536530634 0.0895711592269 0.404817249011
          0.681066968165 0.91439768466 1.10506747518 1.25658813037 1.37287501145 1.45746276863
          1.51486758604 1.55076588954 1.56829180845 1.57150064938 1.56561003013 1.55559828505
          1.54480499029 1.53398628615 1.52009773941 1.94345465351 1.95685079908 1.96628665241
          1.96052922615 1.92767418707 1.86217326738 1.76719967578 1.65538853733 1.53818452315
          1.41925835208 1.29190079956 1.1453656614 0.96667239534 0.752377880089 0.505482818797
          0.226412031493 -0.0862893080669 -0.424905443937 -0.783676975362 -1.14283553682 -1.48246183475
          -1.76893457443 -1.97040078493 -2.09423223034 -2.15809279811 -2.17930020499 -2.16978439334
          -2.1254531874 -2.02957641497 -1.85763263994 -1.59923006525 -1.26885370858 -0.897668790843
          -0.513669794249 -0.13699049994 0.215215514384 0.530913773194 0.799638351433 1.02101072351
          1.19809502289 1.3350586339 1.43643682663 1.50683059462 1.5523864782 1.57739210683
          1.58632534471 1.58378821974 1.57496429231 1.56384161539 1.55133186974 1.53601664844
          1.96637680507 1.95638338869 1.94813502309 1.93402315726 1.90110913281 1.83952886789
          1.74951566168 1.64071433366 1.5220017071 1.39630501559 1.25800273723 1.09813000493
          0.906581708444 0.680933166682 0.421927098899 0.126829751368 -0.20480957497 -0.565803925211
          -0.947984683374 -1.33002573004 -1.67610961252 -1.94413953216 -2.11552117993 -2.20711855802
          -2.24619574364 -2.25675211432 -2.2509562569 -2.22497807353 -2.163780892 -2.04099936058
          -1.82697888357 -1.5206020385 -1.14673105959 -0.746630542113 -0.349623173259 0.030728552047
          0.378976846305 0.679646060002 0.929140492557 1.13090789614 1.28859489679 1.40724522929
          1.49176469434 1.54780073626 1.58117485163 1.59616215081 1.59752188502 1.59057090739
          1.57978116474 1.56686552575 1.5504222767 1.99261136594 1.96054224131 1.93294740945
          1.90888249761 1.87566114795 1.81839971735 1.73340902724 1.62741567298 1.50664466084
          1.37505102918 1.22810966806 1.05993533176 0.862134957818 0.629990010541 0.361783695142
          0.0541919466396 -0.291721995594 -0.670249133131 -1.07119002784 -1.46482179133 -1.80495356641
          -2.04951143353 -2.19389755729 -2.25776105322 -2.27917834412 -2.28493433822 -2.28171002464
          -2.26713072633 -2.22841153842 -2.14024864159 -1.9698618538 -1.69881947754 -1.34061045822
          -0.937403634787 -0.529839545426 -0.134319360351 0.23487095302 0.560585723236 0.834502786858
          1.05789510006 1.23434581265 1.36938327274 1.46827114074 1.53608373552 1.57857977414
          1.60033843934 1.60651923873 1.60252641045 1.59299572668 1.58031483051 1.563526606
          2.02110624819 1.97052829175 1.92398587909 1.88835226142 1.8533937063 1.80024791508
          1.71974348453 1.61524339072 1.49297978339 1.35801855271 1.20696578954 1.0362228737
          0.836857997317 0.601647572867 0.328224440609 0.0136137285891 -0.341704017612 -0.732595202879
          -1.14245378102 -1.53963569764 -1.87470654728 -2.10420310783 -2.22833337789 -2.27552555704
          -2.28933470459 -2.29269286299 -2.29089123719 -2.28150033755 -2.25399971089 -2.18683743097
          -2.04383080434 -1.80104055926 -1.46516458764 -1.07141790569 -0.665693174688 -0.266087024363
          0.111371240868 0.45013797201 0.741004781775 0.982340239536 1.17502458851 1.32458441185
          1.43683541539 1.51638389864 1.56849724381 1.59791102216 1.61037677424 1.61067950179
          1.60329972504 1.59135374193 1.57517599629 2.04732242258 1.98448066803 1.92200948513
          1.8741311119 1.83555213232 1.78509962504 1.70796644336 1.60460904708 1.48324935499
          1.34869821494 1.19903872377 1.03050292837 0.832273882986 0.59688361061 0.322871513347
          0.00690397591001 -0.351750368306 -0.747486553956 -1.15908803585 -1.5577173243 -1.89448957905
          -2.12004382622 -2.23654559538 -2.27878750897 -2.29087042909 -2.29343129801 -2.29188490023
          -2.2842375288 -2.25978542008 -2.19832724112 -2.06687392897 -1.84101677479 -1.52197307792
          -1.14308431992 -0.748172465546 -0.356386344094 0.0188696415082 0.359275329234 0.656622786756
          0.90916221194 1.1148614241 1.2761910043 1.39961553924 1.48946791238 1.55064310964
          1.58833143305 1.60813908043 1.61371490384 1.60995251792 1.60028446568 1.58594789326
          2.06720419894 1.99675072861 1.92366984545 1.86439997962 1.82149964662 1.77253706178
          1.69831472339 1.59752559106 1.47910850006 1.34956945926 1.20576013018 1.04162532382
          0.847406243153 0.615357291673 0.344775249024 0.032639054216 -0.321628246268 -0.713034598459
          -1.12269099274 -1.52045061387 -1.86268451201 -2.09927224699 -2.22389774951 -2.27199337564
          -2.28745514762 -2.29072199708 -2.28852161889 -2.27903591204 -2.25214388069 -2.18396331324
          -2.04782855091 -1.82497812671 -1.51621590333 -1.15479582937 -0.777277478844 -0.400885142909
          -0.0385202765339 0.295419573879 0.590203065258 0.845311943324 1.05789095123 1.2275805265
          1.35913080877 1.45698071807 1.52597651784 1.57187928238 1.59876364195 1.61074910999
          1.61237288378 1.60713182167 1.59581631686 2.0787441898 2.00276404965 1.92327821174
          1.85564313585 1.80875803137 1.76186831644 1.69203304072 1.59605315075 1.48323483871
          1.36086863219 1.22487284829 1.06753135618 0.880008745841 0.655212464124 0.392140043631
          0.0890755619363 -0.251601173378 -0.631712813972 -1.03208368488 -1.42537790311 -1.77529289512
          -2.03420854403 -2.1828612862 -2.24852032321 -2.27349980409 -2.27976486929 -2.27610942545
          -2.2611017181 -2.2220472984 -2.13558478707 -1.9841963927 -1.7542135017 -1.45300449675
          -1.10966039586 -0.752798668995 -0.398623837036 -0.0567231472967 0.261722828634 0.547197529785
          0.797575351617 1.00995615407 1.18330810762 1.31932402598 1.42229411681 1.49701145031
          1.54938893757 1.58297026426 1.60167226331 1.60999845781 1.6108365536 1.60416880013
          2.07910158312 1.99918116337 1.91541849823 1.84271060611 1.79424918627 1.75119096863
          1.68832632564 1.60020582927 1.49437717777 1.37925112718 1.25221257845 1.10407137137
          0.926377808174 0.713161202167 0.46207752805 0.174550584488 -0.147548126467 -0.505495710759
          -0.887850360282 -1.26833416878 -1.62008653899 -1.90596639789 -2.0901126757 -2.18748876296
          -2.23051119355 -2.24292266606 -2.23595387787 -2.20915209973 -2.14964311631 -2.03852730041
          -1.86620984479 -1.62971519764 -1.33680668092 -1.01315147406 -0.679943885929 -0.352609838253
          -0.0358526275696 0.261091298858 0.530782216502 0.77022106686 0.976462901482 1.1478185423
          1.28435360165 1.38893660093 1.46686210562 1.52363542569 1.5627159523 1.58745736841
          1.6029574152 1.61100338731 1.61031252067 2.06813807757 1.98375458697 1.89773294584
          1.82201091396 1.77313453157 1.73635074168 1.68411618528 1.60570554385 1.50845519365
          1.40117916464 1.28350110573 1.14662212023 0.981947431004 0.784188694223 0.550897376921
          0.284365891463 -0.0132078558999 -0.341717915432 -0.694523286032 -1.05208373686 -1.39165091436
          -1.68996192035 -1.90870684546 -2.04585780342 -2.11658892358 -2.1417763465 -2.13455115747
          -2.09479159934 -2.01272660615 -1.87796243694 -1.68741716562 -1.44933783302 -1.16900543602
          -0.866773706458 -0.562920962751 -0.265476716364 0.0224427702368 0.293850364983 0.542992885984
          0.766710748547 0.961187340353 1.12541689771 1.25801190098 1.36131692149 1.44018723348
          1.49917622005 1.54178461694 1.57176976873 1.5936334385 1.60832862052 1.61382399726
          2.04900863807 1.95935866317 1.87043266115 1.79217948629 1.74224742027 1.71290354673
          1.67344394027 1.60748627106 1.5208467664 1.42283880752 1.31531525733 1.19047955946
          1.04088463126 0.861538746011 0.650487477541 0.410711083281 0.143080971729 -0.148792042179
          -0.46192609978 -0.784227544316 -1.09895971596 -1.3847607275 -1.62108047666 -1.79077383335
          -1.89266005095 -1.93794130382 -1.93573195284 -1.88913393325 -1.79311921232 -1.6434490296
          -1.44758907476 -1.21640645028 -0.956327829701 -0.680367710187 -0.407425226557 -0.14183200414
          0.115821145333 0.359902177504 0.585082171333 0.789036892353 0.967600957591 1.11993993425
          1.24486931835 1.34363737201 1.42058868308 1.4798114644 1.52492002977 1.55911157099
          1.58559814938 1.6054625801 1.61642455808 2.02551836158 1.93004182814 1.83741188726
          1.75573308139 1.70317993522 1.67877711802 1.65306961561 1.60215103094 1.52836508451
          1.44113105638 1.34397162934 1.23222524818 1.09854131658 0.940214535913 0.754047431143
          0.544640510174 0.312534076907 0.0611724696954 -0.208043223761 -0.486184669093 -0.762166586193
          -1.02057490416 -1.24727279601 -1.42662219835 -1.55000598003 -1.61639848142 -1.62730538185
          -1.58538919452 -1.48996234925 -1.34289224589 -1.15688675712 -0.944412718879 -0.710493184401
          -0.465963752483 -0.223133149738 0.0123309617165 0.239620286316 0.455030691172 0.65501526534
          0.836686291126 0.997205215165 1.13472325796 1.24819612719 1.33964237955 1.4125534747
          1.47042069578 1.5161461238 1.55225960143 1.58233487183 1.6061721428 1.6209940553
          2.00062003594 1.89903663868 1.80218892623 1.71707166898 1.65901294656 1.63527837043
          1.62193562462 1.58785191142 1.52917508444 1.45396121294 1.36717235706 1.26804273618
          1.15139674874 1.01491165539 0.856429428527 0.678928510113 0.484415849047 0.274825652092
          0.0529976049882 -0.179783330942 -0.41254996874 -0.63233177067 -0.832594234762 -1.00242258098
          -1.12672502614 -1.20399290658 -1.22812970506 -1.19806347565 -1.11794139776 -0.992378800084
          -0.830250860847 -0.644319508447 -0.441396641824 -0.228445057803 -0.0149081530877 0.190961759338
          0.388744606591 0.576012028653 0.750606948251 0.909629060945 1.05065303219 1.17175376762
          1.27229211729 1.35399652565 1.42007757514 1.47388463269 1.51781087611 1.55430179492
          1.58626281753 1.61303532959 1.63088075812 1.97772790708 1.86935583154 1.7675355487
          1.67834914549 1.61460801432 1.58733274008 1.5817888909 1.56453927117 1.52231498066
          1.46034921347 1.38473963633 1.29730088446 1.1966105623 1.08075905568 0.949804570331
          0.805152162376 0.64895444849 0.481547470482 0.304248039882 0.120823564708 -0.0656691867715
          -0.246782279347 -0.41425335555 -0.560598482645 -0.677022633058 -0.755805539961 -0.790094805259
          -0.77727195909 -0.719573045518 -0.621777330771 -0.490429339995 -0.333598111787 -0.159577225685
          0.0236065823955 0.207890317071 0.385733069998 0.557007034484 0.719188847523 0.869789952417
          1.00669663216 1.12823726076 1.2322345196 1.31832989741 1.38807630763 1.44480235934
          1.49156683307 1.53121269452 1.56638687475 1.59915914347 1.62790538759 1.64760701684
          1.9606113814 1.84409735247 1.73702973628 1.64274104193 1.57335424931 1.54094633271
          1.53755773277 1.53430064087 1.5097439956 1.46206732768 1.39808653747 1.32160920018
          1.2350043092 1.13818469968 1.03175117053 0.917707624245 0.797719052862 0.670162298101
          0.536869033749 0.398136406145 0.256193859843 0.1158075392 -0.0194169895287 -0.142527558102
          -0.245373501013 -0.32001913098 -0.36141564928 -0.365367525155 -0.330818518086 -0.259641431671
          -0.155372289158 -0.0246623294705 0.122879168739 0.278798797281 0.436098511331 0.589912397874
          0.738512881666 0.878928562163 1.00834270643 1.12510386338 1.22794179685 1.31458898333
          1.38463599936 1.44041298893 1.48557524007 1.52328702002 1.55674191436 1.58908384214
          1.62165276047 1.65178132289 1.67098484374 1.95223630911 1.82625161816 1.71370075699
          1.61364781778 1.53831803489 1.49940261196 1.49425458181 1.49978244291 1.49143814392
          1.45970815691 1.40855264061 1.3441012078 1.27075535328 1.19055180279 1.10563717728
          1.01831066569 0.929212705244 0.837969723817 0.742744378921 0.643944622274 0.541070795008
          0.435697152548 0.330595407302 0.231240800867 0.143230278542 0.0737440470137 0.0292896099547
          0.0138989398887 0.0308457355498 0.081545133676 0.164323563631 0.272125348296 0.395773802024
          0.528577034663 0.664613470234 0.799226277868 0.92951393237 1.05148779588 1.16276600706
          1.26146245863 1.34563561566 1.41431718262 1.46806476638 1.50932194573 1.54123331842
          1.56821290159 1.59413898921 1.62184163361 1.6523888959 1.6814553998 1.69647593767
          1.95253002845 1.817441674 1.6999340352 1.59457192766 1.51160791554 1.46395519763
          1.45348414859 1.46235597781 1.46721055173 1.45263014852 1.4170836144 1.36692127339
          1.30788929036 1.24499471193 1.18018045357 1.11620344121 1.05388669352 0.992202424351